LAMMPS (28 Mar 2023)
OMP_NUM_THREADS environment is not set. Defaulting to 1 thread. (src/lammps-28Mar2023/src/comm.cpp:98)
  using 1 OpenMP thread(s) per MPI task
units real
boundary p p p
atom_style full


#建模
region box block 0 490 0 490 0 490 units box
create_box 3 box bond/types 20  angle/types 10  extra/bond/per/atom 30 extra/special/per/atom 20 extra/angle/per/atom 30
Created orthogonal box = (0 0 0) to (490 490 490)
  4 by 4 by 3 MPI processor grid

#填充MoO3分子和S2分子
molecule m1 Mo3O9.dat
Read molecule template m1:
  1 molecules
  0 fragments
  12 atoms with max type 2
  0 bonds with max type 0
  0 angles with max type 0
  0 dihedrals with max type 0
  0 impropers with max type 0
molecule m2 S2.dat
Read molecule template m2:
  1 molecules
  0 fragments
  2 atoms with max type 3
  0 bonds with max type 0
  0 angles with max type 0
  0 dihedrals with max type 0
  0 impropers with max type 0


create_atoms 0 random 150 666 box mol m1 888 units box
Created 1800 atoms
  using box units in orthogonal box = (0 0 0) to (490 490 490)
  create_atoms CPU = 0.004 seconds
create_atoms 0 random 3345 1234 box mol m2 777 units box
Created 6690 atoms
  using box units in orthogonal box = (0 0 0) to (490 490 490)
  create_atoms CPU = 0.001 seconds

mass 1 95.9400
mass 2 15.9990
mass 3 32.0600
set type 1 charge 1.53
Setting atom values ...
  450 settings made for charge
set type 2 charge -0.55
Setting atom values ...
  1350 settings made for charge
set type 3 charge 0
Setting atom values ...
  6690 settings made for charge


#定义原子间相互作用势
pair_style reax/c NULL
pair_coeff * * ffield.reax.Mo_Al_O_S Mo O S



neighbor 2.0 bin
neigh_modify every 10 delay 0 check no

fix  1 all qeq/reax 1 0.0 10.0 1e-6 reax/c

min_style cg
minimize 1.0e-4 1.0e-6 100 1000

CITE-CITE-CITE-CITE-CITE-CITE-CITE-CITE-CITE-CITE-CITE-CITE-CITE

Your simulation uses code contributions which should be cited:

- pair reaxff command: doi:10.1016/j.parco.2011.08.005

@Article{Aktulga12,
 author = {H. M. Aktulga and J. C. Fogarty and S. A. Pandit and A. Y. Grama},
 title = {Parallel Reactive Molecular Dynamics: {N}umerical Methods and Algorithmic Techniques},
 journal = {Parallel Computing},
 year =    2012,
 volume =  38,
 number =  {4--5},
 pages =   {245--259}
}

- fix qeq/reaxff command: doi:10.1016/j.parco.2011.08.005

@Article{Aktulga12,
 author = {H. M. Aktulga and J. C. Fogarty and S. A. Pandit and A. Y. Grama},
 title = {Parallel Reactive Molecular Dynamics: {N}umerical Methods and Algorithmic Techniques},
 journal = {Parallel Computing},
 year =    2012,
 volume =  38,
 pages =   {245--259}
}

CITE-CITE-CITE-CITE-CITE-CITE-CITE-CITE-CITE-CITE-CITE-CITE-CITE

Switching to 'neigh_modify every 1 delay 0 check yes' setting during minimization
WARNING: Fix qeq/reax group is not charge neutral, net charge = -54 (src/lammps-28Mar2023/src/REAXFF/fix_qeq_reaxff.cpp:392)
Neighbor list info ...
  update: every = 1 steps, delay = 0 steps, check = yes
  max neighbors/atom: 2000, page size: 100000
  master list distance cutoff = 12
  ghost atom cutoff = 12
  binsize = 6, bins = 82 82 82
  2 neighbor lists, perpetual/occasional/extra = 2 0 0
  (1) pair reax/c, perpetual
      attributes: half, newton off, ghost
      pair build: half/bin/newtoff/ghost
      stencil: full/ghost/bin/3d
      bin: standard
  (2) fix qeq/reax, perpetual, copy from (1)
      attributes: half, newton off
      pair build: copy
      stencil: none
      bin: none
Per MPI rank memory allocation (min/avg/max) = 25.77 | 26.57 | 27.41 Mbytes
   Step          Temp          E_pair         E_mol          TotEng         Press     
         0   0             -540373.36      0             -540373.36      30.362822    
        13   0             -546044.62      0             -546044.62     -2.1790933    
Loop time of 0.0181663 on 48 procs for 13 steps with 8490 atoms

94.0% CPU use with 48 MPI tasks x 1 OpenMP threads

Minimization stats:
  Stopping criterion = energy tolerance
  Energy initial, next-to-last, final = 
     -540373.360915428  -546032.204905474  -546044.618470132
  Force two-norm initial, final = 6554.1673 752.75003
  Force max component initial, final = 3787.1371 365.9604
  Final line search alpha, max atom move = 0.000232499 0.085085426
  Iterations, force evaluations = 13 16

MPI task timing breakdown:
Section |  min time  |  avg time  |  max time  |%varavg| %total
---------------------------------------------------------------
Pair    | 0.0020886  | 0.0036704  | 0.0065005  |   1.5 | 20.20
Bond    | 5.69e-07   | 6.6787e-07 | 9.48e-07   |   0.0 |  0.00
Neigh   | 7.4982e-05 | 9.7871e-05 | 0.00011984 |   0.0 |  0.54
Comm    | 0.0007249  | 0.0030697  | 0.0048589  |   1.9 | 16.90
Output  | 0          | 0          | 0          |   0.0 |  0.00
Modify  | 0.010181   | 0.010223   | 0.010258   |   0.0 | 56.27
Other   |            | 0.001105   |            |       |  6.08

Nlocal:        176.875 ave         227 max         119 min
Histogram: 1 1 6 4 9 8 8 6 4 1
Nghost:        107.875 ave         155 max          63 min
Histogram: 2 3 5 3 11 11 5 3 4 1
Neighs:        341.292 ave         777 max         139 min
Histogram: 4 7 13 13 5 3 2 0 0 1

Total # of neighbors = 16382
Ave neighs/atom = 1.9295642
Ave special neighs/atom = 0
Neighbor list builds = 1
Dangerous builds not checked


timestep	0.2
velocity all create 1100.3 87287 rot yes dist gaussian

#热力学信息
thermo 1000
thermo_style custom step temp press pe ke etotal

variable sp equal press
fix extra all print 5000 "${sp}" file pressure.txt




fix 2 all nvt temp 1100 1100 20


fix 3 all reax/c/bonds 5000 bonds.reaxff

dump 1 all custom 5000 atominfo.lmp id mol type  x y z


run 2500000
Per MPI rank memory allocation (min/avg/max) = 29.08 | 29.88 | 30.73 Mbytes
   Step          Temp          Press          PotEng         KinEng         TotEng    
        13   1100.3         8.6390416     -546044.62      27842.097     -518202.52    
      1000   1162.0271      6.8634436     -542788.26      29404.046     -513384.21    
      2000   1138.6069      3.1810378     -542320.11      28811.418     -513508.69    
      3000   1126.8922      5.1771656     -541633.07      28514.989     -513118.08    
      4000   1116.2039      1.8179849     -541517.54      28244.532     -513273.01    
3.3304165428899
      5000   1104.0558      3.3304165     -541565.82      27937.134     -513628.69    
      6000   1104.288       1.7698949     -541564.32      27943.011     -513621.31    
      7000   1083.8224      3.1118723     -541295.4       27425.146     -513870.25    
      8000   1091.6817      6.1719658     -541258.28      27624.02      -513634.26    
      9000   1106.7372      4.8353487     -541306.74      28004.986     -513301.75    
3.96719570172313
     10000   1108.9122      3.9671957     -541291.93      28060.021     -513231.91    
     11000   1112.835       7.9677145     -541209.54      28159.285     -513050.25    
     12000   1086.7216      4.5526927     -541220.88      27498.507     -513722.37    
     13000   1090.6245      5.5777756     -541340.04      27597.268     -513742.77    
     14000   1093.7411      6.6010134     -541252.12      27676.13      -513575.99    
5.52168006042256
     15000   1091.2772      5.5216801     -541165.56      27613.784     -513551.77    
     16000   1097.6631      5.5092101     -541184.52      27775.373     -513409.15    
     17000   1096.5358      1.4775747     -541153.54      27746.848     -513406.69    
     18000   1101.0283      5.4884788     -541140.95      27860.527     -513280.43    
     19000   1102.9049      5.0488192     -540999.39      27908.013     -513091.38    
6.10160545513084
     20000   1098.2319      6.1016055     -540841.42      27789.767     -513051.66    
     21000   1085.5302      3.933229      -540804.2       27468.36      -513335.84    
     22000   1089.9282      3.1743427     -540599.57      27579.649     -513019.92    
     23000   1093.0394      6.9743204     -540541.76      27658.374     -512883.39    
     24000   1097.8641      6.4364774     -540662.32      27780.459     -512881.86    
5.94551951338655
     25000   1082.663       5.9455195     -540645.26      27395.808     -513249.45    
     26000   1087.8309      6.6931943     -540437.21      27526.579     -512910.63    
     27000   1099.8143      3.0415944     -540294.28      27829.808     -512464.47    
     28000   1084.5937      5.5617291     -540042.61      27444.663     -512597.95    
     29000   1096.1616      4.0964673     -540222.76      27737.378     -512485.38    
8.26313351819533
     30000   1122.3221      8.2631335     -539847.64      28399.346     -511448.3     
     31000   1095.3191      7.7137255     -539968.17      27716.061     -512252.11    
     32000   1118.3854      3.2791268     -539717.88      28299.732     -511418.15    
     33000   1114.6441      5.266945      -539472.08      28205.061     -511267.02    
     34000   1104.9016      5.1635533     -539170.49      27958.536     -511211.95    
6.49602402796932
     35000   1091.4323      6.496024      -539157.73      27617.707     -511540.03    
     36000   1108.9872      3.9287848     -539120.62      28061.919     -511058.7     
     37000   1099.9843      4.4646444     -539028.39      27834.108     -511194.28    
     38000   1092.4329      3.3367192     -538752.01      27643.026     -511108.98    
     39000   1100.5658      7.6527131     -538583.8       27848.823     -510734.98    
6.46836061708854
     40000   1105.5543      6.4683606     -538656.58      27975.054     -510681.52    
     41000   1096.7968      8.7950299     -538701.88      27753.452     -510948.43    
     42000   1095.032       5.2923015     -538295.07      27708.795     -510586.28    
     43000   1096.436       6.1734608     -538022.51      27744.321     -510278.19    
     44000   1097.8646      6.2466522     -538089.76      27780.472     -510309.29    
5.84626019793146
     45000   1106.3454      5.8462602     -537815.66      27995.072     -509820.59    
     46000   1095.8958      1.9416206     -537399.68      27730.654     -509669.02    
     47000   1097.6407      3.2542149     -537368.06      27774.807     -509593.26    
     48000   1110.0347      2.7816187     -537522.45      28088.424     -509434.02    
     49000   1102.8161      4.9686649     -537323.71      27905.765     -509417.95    
6.58011493995707
     50000   1114.4055      6.5801149     -537247.71      28199.026     -509048.69    
     51000   1093.8135      5.5066664     -536936.65      27677.963     -509258.69    
     52000   1116.9767      5.6169142     -536965.93      28264.085     -508701.85    
     53000   1089.0325      5.9719811     -536664.8       27556.983     -509107.82    
     54000   1075.3782      7.4265724     -536540.98      27211.474     -509329.5     
5.4132146875778
     55000   1092.4381      5.4132147     -536378.84      27643.159     -508735.68    
     56000   1103.1411      8.5563748     -536416.68      27913.989     -508502.69    
     57000   1116.9651      5.924148      -536416.86      28263.792     -508153.07    
     58000   1094.7739      7.6782617     -536120.58      27702.265     -508418.31    
     59000   1083.8481      5.2239689     -536216.33      27425.796     -508790.54    
4.26366952675251
     60000   1094.5205      4.2636695     -536042.24      27695.852     -508346.39    
     61000   1097.0469      7.0520422     -535902.48      27759.781     -508142.69    
     62000   1101.8611      6.1356596     -535864.84      27881.599     -507983.24    
     63000   1099.847       2.6604658     -535736.56      27830.634     -507905.93    
     64000   1078.8469      7.3503566     -535505.76      27299.247     -508206.51    
4.46639464547177
     65000   1096.3132      4.4663946     -535562.53      27741.215     -507821.32    
     66000   1091.6806      5.1826043     -535330.45      27623.991     -507706.46    
     67000   1098.079       5.0335873     -535463.39      27785.896     -507677.49    
     68000   1100.0361      5.4442243     -535050.59      27835.42      -507215.17    
     69000   1090.103       5.0792522     -535149.55      27584.072     -507565.48    
6.48498933507955
     70000   1091.4205      6.4849893     -534869.02      27617.41      -507251.61    
     71000   1101.3123      1.4162673     -534888.12      27867.713     -507020.4     
     72000   1092.2954      5.1867234     -534619.28      27639.548     -506979.73    
     73000   1097.6459      2.1588578     -534790.67      27774.937     -507015.73    
     74000   1100.8647      4.9761776     -534623.1       27856.387     -506766.71    
7.37907558994547
     75000   1114.4414      7.3790756     -534761.43      28199.932     -506561.5     
     76000   1094.8081      3.7533715     -534463.89      27703.13      -506760.76    
     77000   1097.9139      4.3240141     -533682.11      27781.72      -505900.39    
     78000   1110.0275      1.6173073     -534076.66      28088.242     -505988.41    
     79000   1081.5065      3.7877293     -533660.7       27366.545     -506294.16    
4.5111543293322
     80000   1100.758       4.5111543     -533819.68      27853.687     -505965.99    
     81000   1092.0618      3.6370624     -533603.47      27633.637     -505969.83    
     82000   1090.9741      3.9904538     -533432.29      27606.114     -505826.17    
     83000   1091.6617      4.6434192     -533061.61      27623.513     -505438.1     
     84000   1103.4813      5.8317454     -533266.48      27922.596     -505343.88    
2.69415348105645
     85000   1104.9117      2.6941535     -533062.02      27958.792     -505103.22    
     86000   1091.1134      1.9777102     -532688.93      27609.638     -505079.29    
     87000   1100.4241      1.6588895     -532718.88      27845.238     -504873.64    
     88000   1107.9244      4.4838455     -532814.44      28035.025     -504779.41    
     89000   1100.1746      0.72417484    -532065.6       27838.924     -504226.68    
2.2205186913096
     90000   1111.6685      2.2205187     -532167.5       28129.767     -504037.73    
     91000   1094.2238      5.4993654     -532220.97      27688.345     -504532.63    
     92000   1097.193       7.9507513     -532060.02      27763.478     -504296.54    
     93000   1098.9112      5.6295362     -532169.65      27806.956     -504362.7     
     94000   1087.3894      6.8267567     -531809.93      27515.407     -504294.53    
7.10558678880977
     95000   1104.8082      7.1055868     -531922.68      27956.173     -503966.51    
     96000   1098.4892      7.2165316     -531772.77      27796.276     -503976.5     
     97000   1107.5567      5.4634809     -531944.67      28025.72      -503918.95    
     98000   1094.3245      3.6869796     -531650.21      27690.892     -503959.31    
     99000   1081.0241      4.939366      -531743.27      27354.337     -504388.93    
4.26589559675973
    100000   1092.1479      4.2658956     -531444.79      27635.816     -503808.97    
    101000   1110.6705      5.1758332     -531463.5       28104.514     -503358.98    
    102000   1089.0822      5.4661044     -531427.62      27558.24      -503869.38    
    103000   1092.2057      5.6266232     -531297.65      27637.279     -503660.37    
    104000   1111.3671      5.5759699     -531406.24      28122.141     -503284.1     
3.71082401639267
    105000   1099.0516      3.710824      -531161.89      27810.508     -503351.38    
    106000   1083.9696      10.169584     -530906.74      27428.871     -503477.87    
    107000   1097.7467      3.7567723     -530849.35      27777.489     -503071.86    
    108000   1117.1302      3.9460399     -530822.21      28267.969     -502554.24    
    109000   1080.2162      4.6011351     -530890.52      27333.895     -503556.62    
4.03293326838303
    110000   1093.5841      4.0329333     -531111.74      27672.157     -503439.58    
    111000   1094.5484      5.4839354     -530835.59      27696.558     -503139.03    
    112000   1102.527       4.7287137     -530634.48      27898.451     -502736.03    
    113000   1099.6356      6.5588142     -530521.27      27825.285     -502695.99    
    114000   1089.1059      5.9908699     -530484.67      27558.84      -502925.83    
1.69134865802497
    115000   1101.7961      1.6913487     -530310.26      27879.956     -502430.31    
    116000   1105.9199      5.4090973     -530607.91      27984.303     -502623.61    
    117000   1085.7525      5.2462541     -530209.08      27473.985     -502735.09    
    118000   1103.5167      5.6346119     -530530.1       27923.492     -502606.6     
    119000   1116.1694      4.4175722     -530290.45      28243.658     -502046.79    
3.20246880669622
    120000   1095.5463      3.2024688     -529966.06      27721.808     -502244.25    
    121000   1100.1427      4.2896061     -530183.04      27838.118     -502344.92    
    122000   1121.361       2.6153438     -530509.48      28375.027     -502134.45    
    123000   1102.719       3.8840987     -530119.09      27903.309     -502215.78    
    124000   1102.7318      3.5011146     -530058.61      27903.632     -502154.98    
2.5686000255168
    125000   1088.8511      2.5686        -529989.03      27552.394     -502436.63    
    126000   1081.641       5.4699252     -529654.21      27369.949     -502284.26    
    127000   1099.9108      4.2146784     -529674.42      27832.249     -501842.17    
    128000   1101.1537      6.9819911     -529782.07      27863.7       -501918.37    
    129000   1096.7165      5.4856975     -529330.08      27751.421     -501578.66    
4.18793609943357
    130000   1097.2975      4.1879361     -529417.19      27766.123     -501651.07    
    131000   1100.5332      2.8799342     -529405.82      27847.997     -501557.82    
    132000   1104.8715      3.5174055     -529248.11      27957.775     -501290.34    
    133000   1076.2593      7.0153226     -528633.72      27233.77      -501399.95    
    134000   1101.6557      5.1974797     -528857.52      27876.401     -500981.12    
6.75942594291069
    135000   1120.522       6.7594259     -528834.95      28353.797     -500481.15    
    136000   1096.4737      4.7891903     -528626.53      27745.275     -500881.26    
    137000   1116.6718      5.8723345     -528619.38      28256.372     -500363.01    
    138000   1084.5679      3.2595482     -528329.82      27444.012     -500885.81    
    139000   1113.637       4.3105824     -528562.55      28179.578     -500382.98    
4.35552368920531
    140000   1095.0426      4.3555237     -528166.1       27709.065     -500457.03    
    141000   1119.3653      4.1188014     -528186.01      28324.528     -499861.48    
    142000   1103.1597      6.7437344     -528119.34      27914.46      -500204.88    
    143000   1095.9788      4.9660187     -528029.34      27732.753     -500296.58    
    144000   1110.0804      4.790944      -527834.22      28089.58      -499744.64    
2.87842718996102
    145000   1082.531       2.8784272     -527846.53      27392.47      -500454.06    
    146000   1111.698       5.1483971     -527867.48      28130.515     -499736.97    
    147000   1103.708       3.8839288     -527597.54      27928.333     -499669.21    
    148000   1114.6951      4.4124578     -527469.77      28206.352     -499263.42    
    149000   1116.113       3.3605556     -527545.45      28242.232     -499303.21    
3.7249115242615
    150000   1091.3636      3.7249115     -527115.59      27615.97      -499499.62    
    151000   1077.1769      5.8852511     -527311.37      27256.988     -500054.38    
    152000   1098.3488      4.4197956     -526789.26      27792.723     -498996.53    
    153000   1109.8517      5.9212094     -527306.94      28083.793     -499223.14    
    154000   1092.2391      4.924673      -526967         27638.124     -499328.88    
6.41583698973824
    155000   1106.9392      6.415837      -526618.7       28010.096     -498608.61    
    156000   1082.9719      5.2084949     -526634.48      27403.624     -499230.86    
    157000   1089.3221      10.25867      -526678.96      27564.313     -499114.65    
    158000   1095.601       5.2013393     -526662.46      27723.193     -498939.27    
    159000   1093.011       3.8423905     -526313.23      27657.656     -498655.57    
2.10793594897633
    160000   1099.5231      2.1079359     -526258.92      27822.438     -498436.49    
    161000   1104.7962      4.7272489     -526053.71      27955.869     -498097.84    
    162000   1090.2433      3.6083485     -525668.03      27587.622     -498080.4     
    163000   1089.4989      5.1175927     -525417.71      27568.785     -497848.93    
    164000   1086.5246      3.9815389     -525716.61      27493.524     -498223.09    
7.23630093030924
    165000   1115.6652      7.2363009     -525635.94      28230.9       -497405.04    
    166000   1099.6912      3.4895785     -525229.68      27826.691     -497402.99    
    167000   1106.8075      3.933562      -525012.41      28006.764     -497005.65    
    168000   1110.9329      4.2169349     -524820.88      28111.152     -496709.73    
    169000   1123.5315      7.3912817     -525122.46      28429.949     -496692.51    
2.03718943829187
    170000   1117.6732      2.0371894     -524798.55      28281.71      -496516.84    
    171000   1110.3395      5.3921757     -524767.97      28096.139     -496671.83    
    172000   1089.677       5.1968836     -524418.86      27573.292     -496845.57    
    173000   1097.5778      4.5546964     -524207.79      27773.214     -496434.58    
    174000   1085.1915      4.6320224     -524130.28      27459.791     -496670.49    
5.1868401234843
    175000   1096.3888      5.1868401     -524176.95      27743.128     -496433.82    
    176000   1093.3587      4.8165752     -524139.13      27666.455     -496472.67    
    177000   1096.2212      5.2112325     -523898.44      27738.887     -496159.56    
    178000   1115.5384      4.6857444     -524199.86      28227.692     -495972.16    
    179000   1091.9881      3.0822983     -523852.2       27631.772     -496220.43    
5.16629752628674
    180000   1104.7912      5.1662975     -523733.48      27955.744     -495777.74    
    181000   1097.6198      7.6156933     -523714.22      27774.277     -495939.94    
    182000   1096.3917      6.2264475     -523995.69      27743.202     -496252.49    
    183000   1087.7283      3.2561991     -523489.35      27523.982     -495965.37    
    184000   1111.2733      1.5622727     -523768.37      28119.767     -495648.61    
0.725017775988147
    185000   1120.7903      0.72501778    -523359.97      28360.586     -494999.38    
    186000   1101.9244      4.9419362     -523422.47      27883.2       -495539.27    
    187000   1097.022       5.2335459     -523238.44      27759.152     -495479.29    
    188000   1095.1324      3.6062104     -523231.34      27711.337     -495520       
    189000   1108.775       3.4305098     -522941.02      28056.549     -494884.47    
5.14335511411214
    190000   1090.5131      5.1433551     -522659.97      27594.448     -495065.52    
    191000   1091.7532      6.5269151     -522665.82      27625.827     -495040       
    192000   1092.4989      5.6759536     -522442.5       27644.699     -494797.8     
    193000   1111.005       6.3816858     -522315.74      28112.978     -494202.77    
    194000   1106.5961      6.0319301     -522237.74      28001.415     -494236.33    
5.73901687172069
    195000   1092.2423      5.7390169     -522067.02      27638.205     -494428.81    
    196000   1102.9328      6.1526124     -521898.28      27908.717     -493989.57    
    197000   1110.6698      5.3269658     -522347.77      28104.496     -494243.27    
    198000   1109.5605      3.8539933     -522037.28      28076.427     -493960.85    
    199000   1107.0694      2.6663703     -521855.81      28013.391     -493842.42    
2.6864193441315
    200000   1093.6739      2.6864193     -521923         27674.43      -494248.57    
    201000   1092.8792      3.7702678     -521638.99      27654.32      -493984.67    
    202000   1112.1121      2.8728401     -521391.28      28140.993     -493250.29    
    203000   1110.8015      3.6785443     -521361.9       28107.828     -493254.07    
    204000   1111.7816      3.3051048     -521303.76      28132.629     -493171.13    
3.38414210526767
    205000   1097.0096      3.3841421     -520956.78      27758.836     -493197.94    
    206000   1102.1964      6.1979367     -521064.13      27890.085     -493174.04    
    207000   1109.8143      6.1930084     -520913.99      28082.849     -492831.14    
    208000   1098.598       7.5365088     -520563.46      27799.03      -492764.43    
    209000   1109.2351      4.3560366     -520322.26      28068.193     -492254.07    
6.17312296158535
    210000   1113.5593      6.173123      -520445.3       28177.612     -492267.69    
    211000   1079.4873      6.9699895     -519974.74      27315.452     -492659.29    
    212000   1096.7758      3.0723445     -519735.19      27752.921     -491982.27    
    213000   1083.0681      4.9126075     -519790.47      27406.061     -492384.4     
    214000   1101.6281      3.7280065     -519817.72      27875.704     -491942.01    
6.21868374869084
    215000   1094.2467      6.2186837     -519546.87      27688.925     -491857.94    
    216000   1104.2672      7.9316013     -519404.66      27942.483     -491462.18    
    217000   1080.142       4.1808556     -519050.76      27332.017     -491718.75    
    218000   1092.6117      3.2003965     -518701.61      27647.552     -491054.06    
    219000   1101.5008      6.6862832     -518651.84      27872.483     -490779.36    
7.26505366778118
    220000   1101.7902      7.2650537     -518460.23      27879.806     -490580.42    
    221000   1093.3448      7.6159866     -518464.34      27666.104     -490798.23    
    222000   1090.5605      4.0087148     -518206.54      27595.647     -490610.9     
    223000   1112.6006      2.3874914     -518088.71      28153.352     -489935.36    
    224000   1114.8113      1.0504992     -518173.53      28209.293     -489964.23    
7.18222465632248
    225000   1101.4689      7.1822247     -518118.62      27871.676     -490246.94    
    226000   1099.4155      5.822261      -517756.9       27819.716     -489937.19    
    227000   1102.3846      6.0123182     -517306.28      27894.846     -489411.44    
    228000   1090.6236      5.3595038     -517279.72      27597.245     -489682.48    
    229000   1093.7488      4.9550677     -517173.9       27676.324     -489497.58    
1.89051183216483
    230000   1104.2032      1.8905118     -517318.31      27940.864     -489377.45    
    231000   1094.3206      3.6815977     -517236.12      27690.793     -489545.33    
    232000   1101.0321      6.0661684     -516875.49      27860.622     -489014.87    
    233000   1089.971       4.8232217     -516621.95      27580.732     -489041.22    
    234000   1097.5359      4.5956878     -517051.86      27772.155     -489279.71    
3.58340367314578
    235000   1088.3306      3.5834037     -516846.39      27539.222     -489307.17    
    236000   1121.1262      4.8293757     -516665.12      28369.085     -488296.04    
    237000   1103.1827      6.7288357     -516221.58      27915.041     -488306.54    
    238000   1101.4526      4.4111482     -516333.99      27871.264     -488462.73    
    239000   1087.7008      4.4131908     -515962.8       27523.286     -488439.51    
4.74063693500749
    240000   1094.7658      4.7406369     -515828.93      27702.059     -488126.87    
    241000   1105.0127      4.602144      -515895.17      27961.348     -487933.83    
    242000   1115.5797      2.8834932     -515425.47      28228.736     -487196.73    
    243000   1083.8596      5.2808648     -515628.07      27426.087     -488201.98    
    244000   1103.706       2.7839381     -515666.3       27928.283     -487738.02    
2.26044907078179
    245000   1100.5042      2.2604491     -515666.35      27847.264     -487819.09    
    246000   1102.3803      6.1513903     -515241.94      27894.736     -487347.2     
    247000   1086.9348      8.5982788     -515092.58      27503.903     -487588.67    
    248000   1108.0842      5.8343373     -515345.1       28039.071     -487306.03    
    249000   1110.7523      2.7031922     -515165.1       28106.582     -487058.51    
5.51221577668423
    250000   1096.6797      5.5122158     -515335.8       27750.489     -487585.31    
    251000   1086.2503      1.5131073     -514867.21      27486.582     -487380.63    
    252000   1081.9781      5.6909065     -514802.21      27378.477     -487423.73    
    253000   1089.983       0.53867272    -514806.64      27581.035     -487225.6     
    254000   1098.0795      4.3807281     -515270.69      27785.911     -487484.78    
5.64722438812244
    255000   1102.7529      5.6472244     -514564.6       27904.165     -486660.43    
    256000   1103.6212      2.605032      -514915.49      27926.137     -486989.35    
    257000   1092.4387      4.1698731     -514534.02      27643.174     -486890.84    
    258000   1098.5873      3.5421782     -514357.55      27798.76      -486558.79    
    259000   1093.6707      5.0206057     -514238.83      27674.349     -486564.48    
5.68244629421515
    260000   1103.7301      5.6824463     -514217.38      27928.894     -486288.49    
    261000   1102.0235      5.185639      -514488.8       27885.71      -486603.1     
    262000   1084.4119      5.199179      -513867.08      27440.063     -486427.02    
    263000   1085.3918      1.9912299     -513912.82      27464.859     -486447.96    
    264000   1105.0954      1.6285435     -513550.56      27963.441     -485587.12    
1.54631118876394
    265000   1108.2962      1.5463112     -513532.14      28044.433     -485487.71    
    266000   1102.8198      2.120182      -513728.35      27905.859     -485822.49    
    267000   1118.1701      2.1188708     -513718.96      28294.283     -485424.67    
    268000   1116.6591      1.5024421     -513639.57      28256.05      -485383.52    
    269000   1109.4402      1.4151894     -513012.16      28073.381     -484938.78    
3.61595788629376
    270000   1092.0269      3.6159579     -513310.67      27632.755     -485677.91    
    271000   1098.1072      7.6332895     -512900.59      27786.609     -485113.98    
    272000   1079.4866      3.1467945     -512685.29      27315.434     -485369.86    
    273000   1087.7456      3.9199842     -512669.07      27524.421     -485144.65    
    274000   1081.1032      3.4689493     -512164.49      27356.339     -484808.15    
4.14066559915011
    275000   1106.2252      4.1406656     -511912.88      27992.029     -483920.85    
    276000   1089.7924      2.9451423     -511791.77      27576.213     -484215.56    
    277000   1091.3995      0.5619718     -511879.94      27616.878     -484263.06    
    278000   1085.0155      2.1920707     -511758.95      27455.336     -484303.61    
    279000   1089.1365      0.87762851    -511862.33      27559.616     -484302.71    
2.94458473192866
    280000   1112.533       2.9445847     -511324.44      28151.643     -483172.8     
    281000   1105.4789      5.6292567     -511535.18      27973.146     -483562.03    
    282000   1110.6584      4.7786297     -511102.73      28104.207     -482998.52    
    283000   1102.727       1.2209622     -511530.73      27903.509     -483627.22    
    284000   1095.0872      3.0232265     -511117.32      27710.192     -483407.13    
6.74751770178242
    285000   1096.1118      6.7475177     -511581.65      27736.119     -483845.54    
    286000   1098.9289      6.4733359     -511130.55      27807.404     -483323.15    
    287000   1100.106       2.4380462     -511031.33      27837.188     -483194.14    
    288000   1115.7952      5.1695246     -510954.94      28234.19      -482720.75    
    289000   1091.5975      2.1112768     -510840.03      27621.889     -483218.14    
1.7250576464973
    290000   1094.4561      1.7250576     -510639.41      27694.222     -482945.19    
    291000   1129.5568      2.2034105     -510984.19      28582.414     -482401.78    
    292000   1095.0469      3.9758405     -510325.24      27709.173     -482616.07    
    293000   1097.7735      8.0257449     -509646.17      27778.167     -481868       
    294000   1104.7059      3.5657253     -510240.65      27953.585     -482287.07    
5.28948816627157
    295000   1112.758       5.2894882     -509979.45      28157.336     -481822.11    
    296000   1111.3881      4.5515533     -509729.07      28122.671     -481606.4     
    297000   1095.7627      1.7881939     -509466.13      27727.285     -481738.84    
    298000   1104.9707      1.5859976     -509896.18      27960.286     -481935.9     
    299000   1090.5277      6.3335937     -509052.86      27594.817     -481458.04    
6.16794694259091
    300000   1099.1128      6.1679469     -509188.99      27812.055     -481376.93    
    301000   1089.2828      2.0926581     -509165.89      27563.318     -481602.57    
    302000   1105.3716      4.3092435     -509315.3       27970.431     -481344.87    
    303000   1123.6184      6.4036856     -509368.58      28432.15      -480936.43    
    304000   1112.6189      4.4804787     -508820.42      28153.817     -480666.6     
6.60794101456236
    305000   1089.327       6.607941      -508224.25      27564.435     -480659.81    
    306000   1119.2936      5.1508115     -508746.54      28322.712     -480423.83    
    307000   1100.2406      3.5887875     -508205.66      27840.594     -480365.07    
    308000   1093.312       5.0342185     -507849.14      27665.273     -480183.87    
    309000   1096.3257      3.9940033     -507990.29      27741.532     -480248.76    
5.29230612908158
    310000   1098.6981      5.2923061     -507769.91      27801.562     -479968.34    
    311000   1100.1435      4.625626      -507759.61      27838.138     -479921.47    
    312000   1099.0838      1.9534564     -507747.78      27811.323     -479936.46    
    313000   1073.8418      3.5516943     -507356.33      27172.596     -480183.74    
    314000   1136.8312      8.0909588     -507963.63      28766.486     -479197.15    
5.78249295966143
    315000   1112.7596      5.782493      -507510.06      28157.376     -479352.69    
    316000   1104.2724      6.2309851     -507523.57      27942.615     -479580.96    
    317000   1100.2642      4.0025401     -507492.13      27841.191     -479650.93    
    318000   1105.5904      8.783884      -507397.09      27975.966     -479421.13    
    319000   1087.7647      1.5831222     -507212.98      27524.904     -479688.08    
4.85684504054023
    320000   1075.9021      4.856845      -506926.11      27224.732     -479701.38    
    321000   1110.0335      5.4831934     -507106.77      28088.395     -479018.38    
    322000   1098.3275      1.563559      -506648.73      27792.185     -478856.55    
    323000   1112.6734      4.3021227     -507329.42      28155.196     -479174.23    
    324000   1079.5168      3.4132815     -506843.43      27316.197     -479527.23    
7.47206028328775
    325000   1097.2956      7.4720603     -506638.34      27766.073     -478872.27    
    326000   1088.7695      2.1847421     -506422.43      27550.329     -478872.11    
    327000   1105.0069      5.2477535     -506469.23      27961.201     -478508.03    
    328000   1115.9864      3.3359991     -506431.52      28239.027     -478192.49    
    329000   1083.7454      5.0345629     -506357.56      27423.198     -478934.36    
2.91479148326541
    330000   1087.7894      2.9147915     -506351.71      27525.529     -478826.18    
    331000   1091.2565      5.2556081     -506246.42      27613.26      -478633.16    
    332000   1094.6517      4.1901164     -506278.16      27699.171     -478578.99    
    333000   1097.4779      8.8588384     -506464.81      27770.687     -478694.12    
    334000   1097.0862      3.7886354     -506417.08      27760.775     -478656.3     
3.18947714421416
    335000   1100.09        3.1894771     -506663.82      27836.784     -478827.04    
    336000   1070.6171      4.5358089     -505785.26      27090.999     -478694.26    
    337000   1086.6878      5.5565307     -505935.39      27497.652     -478437.74    
    338000   1094.7886      2.0287029     -506091.81      27702.637     -478389.17    
    339000   1083.4768      4.2025773     -506053.51      27416.402     -478637.11    
5.71269814665967
    340000   1103.0273      5.7126981     -506009.45      27911.11      -478098.34    
    341000   1102.6101      5.5562856     -506072.93      27900.551     -478172.38    
    342000   1080.5247      1.6450587     -505643.48      27341.702     -478301.78    
    343000   1110.1873      4.135712      -505454.47      28092.286     -477362.18    
    344000   1095.2639      6.0234609     -505547.44      27714.664     -477832.78    
4.37183324428906
    345000   1107.8246      4.3718332     -505532.07      28032.502     -477499.57    
    346000   1108.7637      4.4794621     -505753.32      28056.264     -477697.06    
    347000   1100.3771      5.1534767     -505516.84      27844.048     -477672.8     
    348000   1093.8124      4.3499855     -504985.45      27677.935     -477307.52    
    349000   1083.9938      5.8739097     -504914.71      27429.485     -477485.22    
5.44494816447374
    350000   1116.6763      5.4449482     -504968.3       28256.486     -476711.82    
    351000   1093.7457      7.8874398     -505494.6       27676.247     -477818.35    
    352000   1090.5556      5.7260945     -505052.87      27595.524     -477457.35    
    353000   1093.0975      5.211627      -504876.93      27659.844     -477217.08    
    354000   1101.2222      4.1473381     -505012.29      27865.432     -477146.86    
10.5761413555256
    355000   1083.0943      10.576141     -504783.82      27406.722     -477377.1     
    356000   1104.3831      6.3976566     -505004.87      27945.416     -477059.46    
    357000   1110.9511      5.0005323     -505047.29      28111.614     -476935.68    
    358000   1128.3473      2.6850367     -504808.44      28551.808     -476256.63    
    359000   1107.5408      3.3406161     -504464.44      28025.321     -476439.12    
3.72402314358029
    360000   1098.343       3.7240231     -504592.01      27792.578     -476799.44    
    361000   1095.1365      4.7636038     -504395.32      27711.44      -476683.88    
    362000   1100.9287      0.62309818    -504119.35      27858.005     -476261.35    
    363000   1088.3325      2.10592       -504070.36      27539.27      -476531.09    
    364000   1092.7345      4.5959163     -503966.73      27650.66      -476316.07    
5.77865384893204
    365000   1092.2319      5.7786538     -503699.23      27637.941     -476061.29    
    366000   1100.5593      2.422024      -503605.53      27848.66      -475756.87    
    367000   1116.4126      4.8707534     -503563.26      28249.813     -475313.45    
    368000   1102.2065      1.9174002     -503329.84      27890.339     -475439.5     
    369000   1072.3642      2.5845406     -502432.39      27135.208     -475297.18    
3.68304422894272
    370000   1099.4486      3.6830442     -503047.19      27820.552     -475226.64    
    371000   1102.8806      5.3203256     -502999.56      27907.397     -475092.16    
    372000   1087.1582      3.505159      -502544.81      27509.555     -475035.25    
    373000   1109.1757      4.4816409     -502716.17      28066.689     -474649.48    
    374000   1085.1369      1.0283539     -502730.28      27458.408     -475271.87    
2.56319040842835
    375000   1106.9869      2.5631904     -502944.54      28011.304     -474933.24    
    376000   1110.6679      6.1386618     -502557.74      28104.448     -474453.29    
    377000   1099.2232      1.9045209     -502241.29      27814.849     -474426.44    
    378000   1103.6393      2.3222536     -502016.11      27926.595     -474089.52    
    379000   1104.1771      4.2265839     -501898.16      27940.205     -473957.96    
7.09286089815788
    380000   1110.7593      7.0928609     -502170.98      28106.761     -474064.22    
    381000   1105.7635      1.938568      -501390.43      27980.346     -473410.09    
    382000   1097.1584      3.5013002     -501798.25      27762.601     -474035.65    
    383000   1082.6007      1.6745631     -501602.98      27394.233     -474208.75    
    384000   1085.0396      5.0128551     -501577.69      27455.946     -474121.74    
3.54896469120078
    385000   1095.4851      3.5489647     -501308.4       27720.262     -473588.14    
    386000   1121.0725      4.2566559     -501588.16      28367.726     -473220.43    
    387000   1105.7276      5.2602061     -501343.65      27979.439     -473364.21    
    388000   1120.2342      2.9897281     -501377.14      28346.515     -473030.63    
    389000   1084.9504      3.1071293     -501336.05      27453.69      -473882.36    
6.43674914170567
    390000   1085.3289      6.4367491     -501034.39      27463.268     -473571.12    
    391000   1099.8124      1.5247807     -500567.45      27829.76      -472737.69    
    392000   1098.7988      6.4663485     -500815.51      27804.111     -473011.4     
    393000   1108.6952      5.780659      -501096.94      28054.529     -473042.41    
    394000   1099.8496      7.6736778     -500664.37      27830.701     -472833.67    
4.3166537405949
    395000   1089.7126      4.3166537     -500470.48      27574.192     -472896.29    
    396000   1078.9091      4.2157523     -500168.92      27300.82      -472868.1     
    397000   1085.6594      6.786721      -499962.94      27471.63      -472491.31    
    398000   1111.069       2.7448109     -500511.6       28114.597     -472397       
    399000   1067.2589      6.2367478     -499958.48      27006.022     -472952.46    
7.37622579571909
    400000   1093.8796      7.3762258     -500044.74      27679.636     -472365.1     
    401000   1126.4715      5.723892      -500067.25      28504.343     -471562.9     
    402000   1113.0105      4.0068907     -500104.81      28163.725     -471941.09    
    403000   1087.2471      4.9593493     -500312.91      27511.805     -472801.11    
    404000   1098.3567      4.2846922     -500150.05      27792.924     -472357.13    
3.69152575850762
    405000   1114.9252      3.6915258     -500566.94      28212.175     -472354.77    
    406000   1086.4826      4.9857015     -500052.7       27492.461     -472560.24    
    407000   1108.3348      2.8399527     -500027.2       28045.412     -471981.79    
    408000   1096.0486      4.2342475     -499921.97      27734.518     -472187.45    
    409000   1080.0446      5.8297346     -500082.1       27329.552     -472752.55    
2.53864230870203
    410000   1097.358       2.5386423     -499598.3       27767.653     -471830.65    
    411000   1096.1976      4.516942      -499805.19      27738.289     -472066.9     
    412000   1087.8101      3.1981683     -499964.68      27526.052     -472438.63    
    413000   1107.3542      2.2227584     -499827.49      28020.599     -471806.89    
    414000   1106.8627      2.7359153     -499901.4       28008.16      -471893.24    
4.62754846399491
    415000   1106.9161      4.6275485     -499755.27      28009.513     -471745.75    
    416000   1092.88        4.4728089     -499229.25      27654.341     -471574.9     
    417000   1122.5647      3.2310977     -499660.49      28405.484     -471255       
    418000   1104.32        4.306117      -499606.55      27943.819     -471662.73    
    419000   1105.3101      2.9952403     -499521.45      27968.875     -471552.57    
5.80066477889712
    420000   1121.4749      5.8006648     -499975.98      28377.908     -471598.08    
    421000   1132.1615      4.5061344     -499831.82      28648.324     -471183.5     
    422000   1107.7522      3.9808539     -499043.85      28030.669     -471013.18    
    423000   1100.9076      2.5649734     -499277.43      27857.471     -471419.96    
    424000   1075.3907      4.0008707     -499257.74      27211.79      -472045.94    
4.83275130279956
    425000   1109.8969      4.8327513     -499154.08      28084.939     -471069.14    
    426000   1098.1491      1.4076498     -499274.19      27787.672     -471486.52    
    427000   1101.9063      4.8933421     -498958.2       27882.742     -471075.46    
    428000   1078.2468      2.8787222     -498753.19      27284.06      -471469.13    
    429000   1095.072       6.178914      -499242.99      27709.807     -471533.19    
1.10778124028954
    430000   1088.2578      1.1077812     -498998.11      27537.38      -471460.73    
    431000   1108.0237      0.82729613    -498653.79      28037.538     -470616.25    
    432000   1120.5516      3.4908975     -499099.16      28354.545     -470744.61    
    433000   1076.5249      3.4577708     -498692.45      27240.491     -471451.96    
    434000   1092.6118      2.1130783     -498847.24      27647.553     -471199.68    
4.06533522306634
    435000   1083.6115      4.0653352     -499017.78      27419.81      -471597.97    
    436000   1078.458       6.6467998     -498975.9       27289.405     -471686.49    
    437000   1089.0434      2.0506955     -499196.6       27557.26      -471639.34    
    438000   1104.0416      2.5671479     -499033.63      27936.775     -471096.85    
    439000   1103.1184      5.323272      -498962.26      27913.415     -471048.85    
3.18786574666895
    440000   1076.3236      3.1878657     -498800.37      27235.396     -471564.97    
    441000   1093.0645      2.0904247     -498479.06      27659.009     -470820.05    
    442000   1091.117       4.322048      -498216.39      27609.73      -470606.66    
    443000   1089.0411      0.87708394    -498506.29      27557.202     -470949.09    
    444000   1117.5897      4.594792      -498527.52      28279.599     -470247.92    
3.55905763322119
    445000   1109.1646      3.5590576     -498414.9       28066.409     -470348.49    
    446000   1102.8352      3.5588601     -498538.85      27906.248     -470632.6     
    447000   1098.649       1.8591607     -498184.55      27800.321     -470384.23    
    448000   1090.3072      5.1819512     -498377.46      27589.239     -470788.22    
    449000   1105.0003      2.6286611     -498223.77      27961.033     -470262.73    
2.81742941126625
    450000   1086.5142      2.8174294     -497855.12      27493.26      -470361.86    
    451000   1111.3966      9.0313171     -498383.97      28122.886     -470261.09    
    452000   1098.9141      3.4371602     -498303.4       27807.029     -470496.37    
    453000   1114.3231      2.191096      -498112.14      28196.939     -469915.2     
    454000   1110.0326      3.7062457     -498136.77      28088.372     -470048.4     
2.84267156774923
    455000   1093.2048      2.8426716     -498094.74      27662.559     -470432.18    
    456000   1091.1617      2.3331963     -498015.29      27610.86      -470404.43    
    457000   1102.1576      4.1398439     -498018.27      27889.102     -470129.17    
    458000   1097.7596      3.7868899     -497921.45      27777.815     -470143.64    
    459000   1088.899       4.6716103     -497659.63      27553.607     -470106.02    
3.79399146530416
    460000   1089.1228      3.7939915     -497967.86      27559.267     -470408.6     
    461000   1110.7424      4.5853507     -498071.12      28106.334     -469964.78    
    462000   1093.4028      6.3947383     -498201.38      27667.57      -470533.81    
    463000   1112.6524      7.2408955     -498290.48      28154.665     -470135.81    
    464000   1109.9055      2.7342592     -497974.32      28085.156     -469889.16    
4.02170952017076
    465000   1093.3374      4.0217095     -497922.66      27665.916     -470256.75    
    466000   1102.9034      4.5791555     -498345.54      27907.973     -470437.56    
    467000   1107.0992      4.3203107     -498018.58      28014.144     -470004.44    
    468000   1083.3939      4.4074086     -497767.92      27414.304     -470353.61    
    469000   1104.2094      1.1493183     -497643.38      27941.021     -469702.35    
3.9462499553308
    470000   1072.423       3.94625       -497569.89      27136.696     -470433.2     
    471000   1101.9934      4.0301376     -497932.19      27884.949     -470047.24    
    472000   1101.5064      3.2186595     -497864.75      27872.624     -469992.13    
    473000   1110.4291      5.4704897     -497600.91      28098.406     -469502.5     
    474000   1090.0582      5.0499423     -497430.41      27582.938     -469847.47    
3.34961293300245
    475000   1083.2991      3.3496129     -497499.62      27411.905     -470087.72    
    476000   1089.5137      2.2260667     -497460.49      27569.159     -469891.33    
    477000   1077.5802      1.5457275     -497352.16      27267.193     -470084.96    
    478000   1106.4169      5.4008398     -497606.99      27996.879     -469610.11    
    479000   1124.2241      5.4516811     -498042.29      28447.476     -469594.81    
3.27611705579403
    480000   1104.3067      3.2761171     -497189.06      27943.483     -469245.58    
    481000   1095.6641      2.8172954     -497549.7       27724.79      -469824.91    
    482000   1103.1498      2.24192       -497208.62      27914.209     -469294.41    
    483000   1110.933       5.3723156     -496868.63      28111.155     -468757.47    
    484000   1109.1322      2.2644867     -497142.92      28065.589     -469077.33    
2.50363975757602
    485000   1097.0762      2.5036398     -496956.59      27760.523     -469196.07    
    486000   1096.1872      3.6593172     -496965.58      27738.027     -469227.55    
    487000   1083.9871      1.2607903     -497035.36      27429.314     -469606.05    
    488000   1095.5027      6.3212833     -497133.85      27720.707     -469413.14    
    489000   1098.6029      5.4108913     -496948.43      27799.154     -469149.27    
2.87755759284384
    490000   1100.7675      2.8775576     -496584.49      27853.927     -468730.57    
    491000   1092.7132      4.5331353     -496382.71      27650.121     -468732.59    
    492000   1104.8354      2.0472549     -496738.76      27956.861     -468781.9     
    493000   1101.5656      3.7240282     -496895.08      27874.122     -469020.96    
    494000   1117.753       2.0607421     -497009.05      28283.73      -468725.32    
4.79272677476307
    495000   1106.7884      4.7927268     -496524.85      28006.281     -468518.57    
    496000   1086.2349      4.3665672     -496551.98      27486.193     -469065.78    
    497000   1100.1482      5.2730518     -496709.22      27838.256     -468870.96    
    498000   1117.5606      4.5156236     -496806.03      28278.861     -468527.17    
    499000   1097.8426      3.6021137     -496338.84      27779.916     -468558.92    
3.29988843474874
    500000   1104.6176      3.2998884     -496264.88      27951.349     -468313.53    
    501000   1101.7747      2.658081      -496827.94      27879.413     -468948.52    
    502000   1102.0094      3.8582217     -496579.95      27885.351     -468694.6     
    503000   1090.1804      1.8900535     -496689.53      27586.029     -469103.5     
    504000   1106.4923      3.2169007     -496176.03      27998.788     -468177.24    
5.76089539729379
    505000   1088.14        5.7608954     -496714.1       27534.399     -469179.7     
    506000   1114.2477      6.3163563     -496293.67      28195.031     -468098.64    
    507000   1079.3082      4.1145316     -495790.21      27310.918     -468479.29    
    508000   1085.4412      3.405928      -496034.83      27466.109     -468568.72    
    509000   1077.1465      4.0446509     -496158.77      27256.22      -468902.55    
4.32194825975253
    510000   1090.8032      4.3219483     -496302.34      27601.789     -468700.55    
    511000   1068.3051      0.48307216    -495626.51      27032.496     -468594.01    
    512000   1079.2899      4.3670267     -496247.66      27310.455     -468937.2     
    513000   1087.6911      7.0657384     -495742.26      27523.04      -468219.22    
    514000   1104.1091      6.5844148     -495943.32      27938.482     -468004.84    
4.37822934742157
    515000   1092.3625      4.3782293     -495999         27641.247     -468357.76    
    516000   1102.0966      7.1553702     -495375.88      27887.559     -467488.32    
    517000   1117.2073      8.2172103     -495714.11      28269.922     -467444.19    
    518000   1089.9247      6.5919207     -495311.3       27579.56      -467731.74    
    519000   1102.8378      5.2095697     -495326.69      27906.313     -467420.38    
5.52460556481709
    520000   1108.4817      5.5246056     -495392.11      28049.129     -467342.98    
    521000   1111.7094      3.4488332     -495665.54      28130.802     -467534.74    
    522000   1090.0209      5.288108      -495278.35      27581.995     -467696.35    
    523000   1103.7764      3.1313338     -495357.34      27930.064     -467427.28    
    524000   1116.8728      7.4899423     -495292.94      28261.457     -467031.48    
4.74906347278172
    525000   1094.1074      4.7490635     -495005.6       27685.399     -467320.2     
    526000   1125.1645      4.8418188     -495594.02      28471.272     -467122.75    
    527000   1090.4523      5.8392756     -495231.85      27592.911     -467638.93    
    528000   1113.0277      6.4198269     -495502.84      28164.161     -467338.68    
    529000   1107.2637      8.2341734     -495161.34      28018.308     -467143.03    
4.1126719815618
    530000   1120.6089      4.112672      -495529.39      28355.996     -467173.4     
    531000   1105.1165      4.6019467     -495269.96      27963.974     -467305.98    
    532000   1118.939       4.8098549     -495235.24      28313.741     -466921.5     
    533000   1101.9966      5.4799699     -495019.8       27885.029     -467134.78    
    534000   1099.0565      4.8130108     -495020.35      27810.631     -467209.72    
2.01500967319864
    535000   1075.6381      2.0150097     -494580.45      27218.05      -467362.4     
    536000   1116.3651      4.7848215     -495082.65      28248.61      -466834.04    
    537000   1091.5591      4.5214392     -494568.5       27620.916     -466947.59    
    538000   1101.152       3.3277322     -494805.36      27863.655     -466941.7     
    539000   1105.2355      3.3500115     -494642.25      27966.985     -466675.26    
3.90527998830951
    540000   1092.392       3.90528       -494475.11      27641.992     -466833.12    
    541000   1102.6582      3.8613971     -494328         27901.769     -466426.23    
    542000   1083.9538      4.6214139     -494346         27428.472     -466917.52    
    543000   1112.3676      2.8854029     -494349.17      28147.457     -466201.71    
    544000   1119.3736      3.3456063     -494254.03      28324.737     -465929.29    
2.0518173726895
    545000   1113.3458      2.0518174     -494223.32      28172.209     -466051.11    
    546000   1118.5568      3.4197579     -493820.71      28304.069     -465516.64    
    547000   1096.8697      3.3965611     -493861.31      27755.298     -466106.02    
    548000   1115.1221      2.9065095     -494052.08      28217.157     -465834.93    
    549000   1098.1855      4.2031886     -494386.77      27788.593     -466598.18    
2.38973636800191
    550000   1073.2418      2.3897364     -493602.74      27157.415     -466445.33    
    551000   1097.8657      1.8622885     -494194.16      27780.5       -466413.66    
    552000   1117.356       3.9992287     -494453.3       28273.684     -466179.62    
    553000   1096.4434      4.1481183     -494041.93      27744.511     -466297.42    
    554000   1102.0955      3.7937148     -493729.94      27887.532     -465842.41    
3.9866172337288
    555000   1105.0791      3.9866172     -493876.71      27963.028     -465913.69    
    556000   1106.7559      4.1661379     -494152.48      28005.458     -466147.02    
    557000   1091.7192      5.5412522     -494121.08      27624.967     -466496.11    
    558000   1105.1074      4.9830057     -494033.16      27963.743     -466069.41    
    559000   1091.2498      2.0312043     -493584.05      27613.089     -465970.96    
3.90055888010576
    560000   1093.0448      3.9005589     -493473.16      27658.511     -465814.65    
    561000   1089.7448     -0.47878304    -493187.96      27575.007     -465612.96    
    562000   1075.7038      1.9395378     -493743.75      27219.713     -466524.04    
    563000   1089.9346      4.2575982     -493355.12      27579.811     -465775.31    
    564000   1091.8675      2.1053819     -493359.29      27628.721     -465730.57    
1.21164555128685
    565000   1109.7857      1.2116456     -493882.68      28082.124     -465800.56    
    566000   1089.9398      1.4985507     -493320.15      27579.942     -465740.21    
    567000   1113.2952      6.6166113     -493422.49      28170.93      -465251.56    
    568000   1128.4521      2.2410127     -494234.94      28554.46      -465680.48    
    569000   1094.9738      6.1055056     -493410.45      27707.323     -465703.12    
3.40847680296803
    570000   1088.612       3.4084768     -492873.37      27546.344     -465327.03    
    571000   1116.8968      1.966514      -493414.61      28262.063     -465152.55    
    572000   1101.8476      5.6185948     -493157.87      27881.257     -465276.62    
    573000   1124.1763      5.1230793     -493632.61      28446.265     -465186.34    
    574000   1098.0463      3.1454622     -493575.91      27785.069     -465790.84    
4.9170917671027
    575000   1113.8093      4.9170918     -493480.77      28183.939     -465296.84    
    576000   1095.5961      2.1775668     -493642.73      27723.068     -465919.66    
    577000   1096.7269      1.1124487     -492979.21      27751.682     -465227.53    
    578000   1103.774       3.2253497     -493067.56      27930.004     -465137.56    
    579000   1057.1826      5.324124      -492532.31      26751.049     -465781.26    
1.02222342193595
    580000   1099.8386      1.0222234     -492892         27830.421     -465061.58    
    581000   1080.7793     -0.89285465    -492696.69      27348.144     -465348.55    
    582000   1099.2403      2.6221941     -492879.2       27815.283     -465063.91    
    583000   1118.1234      6.2638905     -493112.54      28293.102     -464819.44    
    584000   1122.7911      5.0173238     -492890.76      28411.214     -464479.55    
3.32045686326103
    585000   1085.8038      3.3204569     -492645.78      27475.285     -465170.5     
    586000   1084.5551      5.0252176     -492894.78      27443.687     -465451.09    
    587000   1093.7614      3.4910077     -492910.99      27676.644     -465234.35    
    588000   1101.1687      3.0070106     -492886.9       27864.079     -465022.82    
    589000   1076.9614      2.5352623     -492955.54      27251.535     -465704.01    
4.37980168464313
    590000   1087.0576      4.3798017     -492919.99      27507.011     -465412.98    
    591000   1097.4191      4.9820048     -493020.72      27769.198     -465251.52    
    592000   1106.2231      2.1459257     -492990.63      27991.977     -464998.65    
    593000   1102.8057      3.7118756     -492963.86      27905.503     -465058.36    
    594000   1092.1982      5.7068828     -492697.99      27637.088     -465060.91    
2.90726128425192
    595000   1100.0006      2.9072613     -492764.67      27834.521     -464930.15    
    596000   1083.8962      3.6594578     -492303.22      27427.014     -464876.21    
    597000   1110.0179      3.5529489     -492653.66      28088.001     -464565.66    
    598000   1118.96        2.7420089     -492941.88      28314.272     -464627.6     
    599000   1105.0454      4.3085433     -492029.22      27962.175     -464067.04    
4.62156546984121
    600000   1112.9414      4.6215655     -492532.09      28161.977     -464370.12    
    601000   1106.1202      2.2552869     -492595.05      27989.373     -464605.68    
    602000   1101.4121      1.5278065     -492135         27870.237     -464264.77    
    603000   1110.4739      2.9512992     -492044.9       28099.539     -463945.36    
    604000   1115.5704      3.3260188     -492244.17      28228.501     -464015.67    
3.74942957279985
    605000   1106.6159      3.7494296     -492054.61      28001.916     -464052.7     
    606000   1109.9458      2.2195887     -491602.62      28086.177     -463516.45    
    607000   1091.006       1.3218111     -491454.7       27606.92      -463847.78    
    608000   1093.8889      3.1587933     -491155.85      27679.871     -463475.98    
    609000   1100.038       2.6262779     -491821.78      27835.469     -463986.31    
4.90489588834326
    610000   1119.3511      4.9048959     -491833.06      28324.168     -463508.89    
    611000   1122.2185      3.2603648     -491392.69      28396.725     -462995.96    
    612000   1086.589       5.2702904     -491107.27      27495.153     -463612.12    
    613000   1087.1908      3.2597141     -491104.46      27510.382     -463594.08    
    614000   1108.5802      5.1349183     -490958.79      28051.621     -462907.17    
3.1877691550087
    615000   1131.6958      3.1877692     -491555.73      28636.539     -462919.19    
    616000   1104.779       2.5349231     -491190.66      27955.435     -463235.22    
    617000   1089.0235      3.5819393     -490890.51      27556.756     -463333.75    
    618000   1103.2352      4.6960435     -490843.16      27916.369     -462926.79    
    619000   1118.3801      3.8974497     -491562.6       28299.599     -463263       
4.69414075287343
    620000   1096.8959      4.6941408     -491077.57      27755.959     -463321.61    
    621000   1068.5214      1.0241016     -490789.94      27037.969     -463751.97    
    622000   1093.2192      2.3690724     -490639.25      27662.925     -462976.32    
    623000   1098.8897      1.5723288     -490836.21      27806.411     -463029.8     
    624000   1123.153       2.718717      -490878.39      28420.372     -462458.02    
5.11556504250847
    625000   1122.3235      5.115565      -490981.68      28399.383     -462582.3     
    626000   1092.5594      3.329058      -490560.15      27646.227     -462913.92    
    627000   1094.0179      3.5450076     -490569.8       27683.135     -462886.67    
    628000   1086.0662      0.18549791    -490497.16      27481.924     -463015.24    
    629000   1114.1107      2.3037294     -490793.17      28191.566     -462601.6     
6.65437366304973
    630000   1103.937       6.6543737     -490081.36      27934.128     -462147.23    
    631000   1099.5282      4.3172679     -490285.38      27822.567     -462462.82    
    632000   1109.4962      3.9980243     -490038.54      28074.798     -461963.75    
    633000   1115.5353      4.1142485     -489528.9       28227.613     -461301.29    
    634000   1108.9037      4.6217796     -489959.67      28059.807     -461899.87    
0.858335490341441
    635000   1083.6642      0.85833549    -489255.93      27421.143     -461834.79    
    636000   1111.3534      2.5674944     -489550.93      28121.794     -461429.13    
    637000   1120.3176      5.7025006     -489409.39      28348.624     -461060.76    
    638000   1117.0262      2.5678648     -489599.85      28265.339     -461334.51    
    639000   1100.8489      2.7820009     -489094.49      27855.987     -461238.51    
4.18052635710331
    640000   1115.2597      4.1805264     -488777.06      28220.638     -460556.43    
    641000   1096.5327      5.2409191     -488780.81      27746.77      -461034.04    
    642000   1100.0175      4.4297977     -489249.17      27834.948     -461414.23    
    643000   1101.9366      3.76794       -488901.94      27883.509     -461018.43    
    644000   1096.9505      6.8564205     -488943.48      27757.341     -461186.14    
3.02376205666838
    645000   1076.4125      3.0237621     -488506.81      27237.645     -461269.16    
    646000   1089.3863      6.0103763     -488321.75      27565.936     -460755.82    
    647000   1106.249       4.1176137     -488335.05      27992.63      -460342.42    
    648000   1092.4984      5.0984397     -487926.83      27644.685     -460282.15    
    649000   1094.7942      6.7754015     -487902.98      27702.778     -460200.21    
3.16751144986395
    650000   1093.3392      3.1675114     -488291.29      27665.96      -460625.33    
    651000   1093.0831      4.0328393     -488157.99      27659.48      -460498.51    
    652000   1090.4568      4.8924767     -488316.78      27593.024     -460723.76    
    653000   1081.43        4.6787925     -488029.01      27364.608     -460664.4     
    654000   1090.9868      4.1275307     -488182.77      27606.436     -460576.33    
4.71625527463424
    655000   1094.5757      4.7162553     -487752.57      27697.248     -460055.32    
    656000   1114.6178      5.0444559     -488512.82      28204.396     -460308.43    
    657000   1108.1263      3.8069474     -488051.28      28040.136     -460011.14    
    658000   1100.2018      3.675646      -488039.79      27839.613     -460200.18    
    659000   1099.5401      4.6619747     -488503.38      27822.869     -460680.51    
5.1681804112597
    660000   1076.3322      5.1681804     -488171.61      27235.614     -460935.99    
    661000   1097.8984     -1.2476273     -487743.44      27781.327     -459962.11    
    662000   1098.7478      4.180309      -488035.87      27802.821     -460233.05    
    663000   1121.148       1.5703703     -487989.01      28369.638     -459619.37    
    664000   1082.6954      2.7532749     -487563.22      27396.629     -460166.59    
5.19186995148808
    665000   1098.6076      5.19187       -487606.48      27799.273     -459807.21    
    666000   1108.2579      4.2556926     -487883.51      28043.464     -459840.05    
    667000   1126.7067      6.5676664     -488047.09      28510.295     -459536.8     
    668000   1111.198       2.2613022     -487957.67      28117.862     -459839.81    
    669000   1087.7973      1.0708977     -487823.42      27525.727     -460297.69    
4.74734216567365
    670000   1104.5966      4.7473422     -487463.37      27950.82      -459512.55    
    671000   1095.5202      0.98766198    -487474.99      27721.15      -459753.84    
    672000   1104.7571      2.8405254     -487230.2       27954.881     -459275.32    
    673000   1097.8582      2.6468682     -487208.98      27780.31      -459428.67    
    674000   1119.5967      4.1214199     -487719.97      28330.382     -459389.59    
1.81368800413431
    675000   1085.9527      1.813688      -487452.19      27479.052     -459973.14    
    676000   1117.66        1.9563324     -487755.12      28281.377     -459473.74    
    677000   1091.7541      2.6270201     -487224.11      27625.85      -459598.26    
    678000   1096.8059      2.1184906     -487376.84      27753.683     -459623.16    
    679000   1092.5895      2.0633961     -486984.34      27646.991     -459337.35    
1.68867551619549
    680000   1108.0206      1.6886755     -487172.07      28037.461     -459134.61    
    681000   1092.4381      3.6998766     -487246.35      27643.159     -459603.19    
    682000   1090.6915      3.6703451     -487266.1       27598.962     -459667.14    
    683000   1102.708       2.6034211     -486937.75      27903.03      -459034.72    
    684000   1105.5069      0.28748666    -487287.77      27973.854     -459313.92    
1.5433006207537
    685000   1094.0286      1.5433006     -486868.75      27683.406     -459185.34    
    686000   1114.6106      4.5434245     -487367.78      28204.213     -459163.57    
    687000   1107.5364      1.8343789     -486814.32      28025.209     -458789.11    
    688000   1087.7784      4.9825118     -486507.22      27525.249     -458981.97    
    689000   1084.3474      1.4438996     -486807.75      27438.431     -459369.32    
0.452242133959927
    690000   1092.8714      0.45224213    -486382.65      27654.122     -458728.53    
    691000   1115.9401      5.6007813     -486685.52      28237.855     -458447.67    
    692000   1079.804       1.2028421     -486475.53      27323.466     -459152.06    
    693000   1103.2424      1.4198828     -486526.01      27916.552     -458609.46    
    694000   1104.4185      3.5338985     -486901.62      27946.312     -458955.31    
0.840667317498739
    695000   1088.339       0.84066732    -486925.01      27539.434     -459385.58    
    696000   1101.0089      3.912507      -486483.68      27860.036     -458623.64    
    697000   1096.0378      0.041133189   -486124.05      27734.247     -458389.8     
    698000   1085.466       0.71720789    -486546.49      27466.737     -459079.75    
    699000   1097.3924      4.0169624     -486474.4       27768.523     -458705.88    
4.19014109284734
    700000   1096.49        4.1901411     -486641.6       27745.689     -458895.91    
    701000   1094.7991      0.13171268    -486264.47      27702.903     -458561.57    
    702000   1112.8512      3.8965472     -486619.27      28159.694     -458459.57    
    703000   1113.9849      2.2458285     -486563.65      28188.382     -458375.27    
    704000   1112.3135      3.3245243     -486964.2       28146.087     -458818.12    
3.99912195225951
    705000   1110.9513      3.999122      -486768.26      28111.62      -458656.64    
    706000   1102.8155      2.464251      -486310.36      27905.751     -458404.61    
    707000   1102.7983      3.9796867     -486396.9       27905.314     -458491.58    
    708000   1099.4841      4.7657028     -485981.09      27821.451     -458159.64    
    709000   1088.7998      5.063143      -486131.87      27551.096     -458580.78    
0.255748685014785
    710000   1102.5331      0.25574869    -486327.62      27898.604     -458429.01    
    711000   1127.3618      3.5739874     -486560.69      28526.872     -458033.82    
    712000   1098.1529      1.6466809     -486336.95      27787.767     -458549.18    
    713000   1088.3269      3.988531      -485844.34      27539.129     -458305.21    
    714000   1113.0354      2.7062525     -486025.84      28164.354     -457861.49    
4.2649266751012
    715000   1094.3488      4.2649267     -485795.79      27691.508     -458104.28    
    716000   1110.0305      5.2728348     -485791.11      28088.32      -457702.79    
    717000   1119.2598      4.9262891     -485706.36      28321.857     -457384.5     
    718000   1106.7533      3.0541006     -485575.71      28005.392     -457570.32    
    719000   1083.6415      1.744669      -485711.28      27420.568     -458290.72    
4.66310414830081
    720000   1100.7011      4.6631041     -486242.11      27852.248     -458389.86    
    721000   1102.0492      6.2531537     -485968.85      27886.36      -458082.49    
    722000   1115.7316      4.362873      -486087.08      28232.581     -457854.5     
    723000   1094.8426      6.1619836     -485830.43      27704.002     -458126.43    
    724000   1087.2491      3.1415337     -485831.42      27511.857     -458319.57    
3.66117590834614
    725000   1105.1082      3.6611759     -485704.77      27963.764     -457741       
    726000   1106.443       4.5049505     -486554.81      27997.541     -458557.27    
    727000   1090.9819      4.921267      -486074.07      27606.31      -458467.76    
    728000   1102.4361      3.0823215     -485606.29      27896.149     -457710.14    
    729000   1092.8075      2.3689732     -485627.58      27652.507     -457975.07    
3.35780709050348
    730000   1121.6311      3.3578071     -485825.68      28381.861     -457443.82    
    731000   1097.6603      2.1356462     -485818.1       27775.301     -458042.8     
    732000   1103.3182      5.2491053     -485906.09      27918.47      -457987.62    
    733000   1105.1046      6.193032      -485765.29      27963.674     -457801.62    
    734000   1093.3822      2.1390706     -485890.47      27667.048     -458223.42    
3.28661782779804
    735000   1112.1031      3.2866178     -485992.28      28140.764     -457851.51    
    736000   1095.4967      3.1479007     -485443.47      27720.555     -457722.92    
    737000   1105.6292      6.7835991     -486061.04      27976.948     -458084.09    
    738000   1072.6056      3.9662488     -485748.38      27141.316     -458607.06    
    739000   1102.475       5.8277004     -485941.74      27897.134     -458044.6     
4.49945468908292
    740000   1070.5073      4.4994547     -485525.56      27088.221     -458437.34    
    741000   1073.3453      3.8989917     -484914.07      27160.033     -457754.03    
    742000   1095.6377      3.8112615     -485903.64      27724.121     -458179.51    
    743000   1115.748       8.3461066     -485923.32      28232.994     -457690.32    
    744000   1091.2388      4.7588574     -486135.97      27612.812     -458523.15    
4.23509685662647
    745000   1091.2499      4.2350969     -485456.09      27613.094     -457843       
    746000   1074.862       3.23958       -484938.89      27198.412     -457740.48    
    747000   1099.3508      5.8495648     -486311.01      27818.08      -458492.93    
    748000   1119.2434      1.5788014     -485589.07      28321.443     -457267.63    
    749000   1069.0008     -0.29200459    -485876.57      27050.099     -458826.48    
5.66752660198959
    750000   1098.1989      5.6675266     -486388.69      27788.931     -458599.76    
    751000   1100.6002      2.4274088     -486076.8       27849.694     -458227.1     
    752000   1102.8955      1.6274046     -485812.56      27907.774     -457904.79    
    753000   1078.1551      1.7437304     -485449.72      27281.74      -458167.98    
    754000   1100.0436      4.2342688     -486125.2       27835.609     -458289.59    
1.41077998152671
    755000   1108.9398      1.41078       -485930.03      28060.721     -457869.31    
    756000   1079.8567     -1.0049986     -485818.13      27324.799     -458493.33    
    757000   1086.7635     -0.10791958    -485814.85      27499.569     -458315.28    
    758000   1104.8791      1.7054039     -485644.53      27957.966     -457686.56    
    759000   1087.9376      1.5794943     -485232.63      27529.277     -457703.35    
2.27868172652307
    760000   1096.6036      2.2786817     -485573.29      27748.563     -457824.73    
    761000   1085.8697      1.74635       -485739.84      27476.953     -458262.89    
    762000   1111.3339      3.7119074     -486123.96      28121.3       -458002.66    
    763000   1111.4943      4.0635634     -485733.71      28125.359     -457608.35    
    764000   1087.729       2.8100156     -485585.98      27523.999     -458061.98    
4.66568495647234
    765000   1091.0796      4.665685      -485479.59      27608.784     -457870.81    
    766000   1088.3617      3.2416962     -486096.96      27540.01      -458556.95    
    767000   1098.382       2.8621329     -485922.72      27793.565     -458129.15    
    768000   1084.6619      3.6779179     -485306.36      27446.391     -457859.97    
    769000   1092.8572      5.3106333     -485752.06      27653.765     -458098.3     
5.20614099911727
    770000   1098.0415      5.206141      -485694.69      27784.949     -457909.74    
    771000   1095.9313      1.0317277     -485505.88      27731.552     -457774.33    
    772000   1099.8293      2.521919      -485724.41      27830.188     -457894.22    
    773000   1116.6814      2.3274532     -485863.96      28256.615     -457607.34    
    774000   1098.0699      4.9915195     -485811         27785.666     -458025.34    
5.74940445002422
    775000   1093.7614      5.7494045     -485470.19      27676.644     -457793.55    
    776000   1096.6327      2.5049944     -486235.29      27749.3       -458485.99    
    777000   1112.5123      3.8621287     -486231.52      28151.12      -458080.4     
    778000   1098.8298      2.4675055     -486086.08      27804.895     -458281.18    
    779000   1070.8046      3.6804798     -485901.6       27095.742     -458805.86    
4.84067373899995
    780000   1098.9304      4.8406737     -485998.66      27807.441     -458191.21    
    781000   1118.6241      1.7871447     -485995.95      28305.772     -457690.17    
    782000   1110.8388      1.4553573     -485953.44      28108.772     -457844.66    
    783000   1104.4513      4.3905639     -485785.05      27947.143     -457837.91    
    784000   1114.2036      1.5378625     -486074.7       28193.916     -457880.78    
-0.200131291304959
    785000   1096.8395     -0.20013129    -486141.97      27754.532     -458387.44    
    786000   1103.5505      2.1873565     -485995.23      27924.349     -458070.88    
    787000   1071.3287      5.1599324     -485755.18      27109.005     -458646.18    
    788000   1113.9982      3.0480439     -486085.24      28188.718     -457896.53    
    789000   1109.097       1.0342345     -485820.28      28064.698     -457755.59    
2.94662599287394
    790000   1087.0298      2.946626      -485849.52      27506.307     -458343.21    
    791000   1099.3666      1.9976531     -485927.02      27818.478     -458108.54    
    792000   1098.0136      2.6052201     -485513.1       27784.242     -457728.86    
    793000   1093.0962      2.9976631     -485884.5       27659.812     -458224.69    
    794000   1100.9704      4.8357589     -485715.94      27859.06      -457856.88    
1.66122502748347
    795000   1119.1953      1.661225      -485526.61      28320.225     -457206.38    
    796000   1100.6418      4.2405176     -485567.52      27850.747     -457716.77    
    797000   1108.3142      2.0950126     -486020.66      28044.89      -457975.77    
    798000   1096.0698      2.6035873     -485807.05      27735.057     -458072       
    799000   1102.8251      1.9514628     -485749.48      27905.993     -457843.49    
6.59879346267098
    800000   1091.2988      6.5987935     -485855.83      27614.331     -458241.5     
    801000   1095.2353      5.1065444     -485674.92      27713.939     -457960.98    
    802000   1094.9046      1.8380978     -485806.15      27705.571     -458100.58    
    803000   1113.7736      2.1613197     -485949.02      28183.035     -457765.98    
    804000   1115.4645      4.0109941     -486603.33      28225.822     -458377.51    
3.06119507640492
    805000   1111.4621      3.0611951     -486082.61      28124.544     -457958.07    
    806000   1115.9209      5.5170097     -485994.92      28237.37      -457757.55    
    807000   1099.6554      3.3361181     -486478.45      27825.787     -458652.67    
    808000   1099.2428      4.7707997     -485993.39      27815.347     -458178.04    
    809000   1099.3426      4.3499558     -486582.05      27817.871     -458764.18    
3.06263395789819
    810000   1097.1375      3.062634      -486082.46      27762.074     -458320.38    
    811000   1072.4621      3.7864097     -486193.2       27137.684     -459055.52    
    812000   1103.7741      4.449217      -486452.31      27930.006     -458522.3     
    813000   1109.9292      5.1570786     -486249.74      28085.755     -458163.98    
    814000   1099.7623      4.4204932     -485949.48      27828.492     -458120.99    
2.02892454420608
    815000   1087.6917      2.0289245     -486260.21      27523.057     -458737.15    
    816000   1078.4294      1.5606204     -486013.64      27288.682     -458724.95    
    817000   1104.0518      3.1243494     -485989.17      27937.032     -458052.13    
    818000   1092.319       1.4606888     -485774.38      27640.146     -458134.23    
    819000   1084.3976      2.760544      -485826.03      27439.702     -458386.33    
4.44395947270687
[...]
2.75496558128207
   2295000   1100.343       2.7549656     -523631.4       27843.184     -495788.22    
   2296000   1129.759       2.7418408     -523614.79      28587.531     -495027.26    
   2297000   1085.5139      2.2358246     -523528.91      27467.948     -496060.96    
   2298000   1098.8879      2.9336675     -523868.96      27806.366     -496062.6     
   2299000   1095.6217      2.14538       -523705.17      27723.717     -495981.45    
-0.00960194443902179
   2300000   1095.992      -0.0096019444  -523315.12      27733.088     -495582.04    
   2301000   1103.1363      1.7697399     -523800.52      27913.868     -495886.65    
   2302000   1092.1726      1.5050397     -523819.37      27636.442     -496182.93    
   2303000   1087.5102      0.30766949    -523298.89      27518.464     -495780.42    
   2304000   1086.2095      1.1007497     -523240.35      27485.55      -495754.8     
-0.283567525088542
   2305000   1086.8944     -0.28356753    -523523.11      27502.88      -496020.23    
   2306000   1082.9282     -0.30092696    -523645.14      27402.52      -496242.62    
   2307000   1091.6659      1.0333109     -524029.14      27623.619     -496405.52    
   2308000   1099.8469     -0.92883026    -523996.97      27830.631     -496166.34    
   2309000   1105.1061      1.563821      -523425.56      27963.712     -495461.85    
1.88828949186789
   2310000   1098.0577      1.8882895     -523605.68      27785.357     -495820.32    
   2311000   1103.2499     -0.1775679     -524353.58      27916.741     -496436.84    
   2312000   1099.3726      4.2702863     -524127.96      27818.629     -496309.33    
   2313000   1093.0543      0.141188      -523778.31      27658.753     -496119.55    
   2314000   1095.8971      1.0251774     -523850.06      27730.685     -496119.38    
1.7822798566908
   2315000   1097.5041      1.7822799     -524069.56      27771.35      -496298.21    
   2316000   1112.5541      5.5316097     -524006.81      28152.175     -495854.63    
   2317000   1087.4349      2.9837866     -523898.88      27516.557     -496382.33    
   2318000   1096.2543      0.70757811    -524046.89      27739.724     -496307.16    
   2319000   1112.8747      2.1739612     -524719.71      28160.29      -496559.42    
4.56860126144853
   2320000   1109.6642      4.5686013     -523974.08      28079.049     -495895.03    
   2321000   1108.9604      4.4008441     -524083.33      28061.241     -496022.09    
   2322000   1090.3362      4.0296227     -523884.17      27589.971     -496294.2     
   2323000   1080.7667      1.7420628     -523535.04      27347.826     -496187.21    
   2324000   1098.1826      2.7301903     -524546.62      27788.517     -496758.1     
7.72787702612679
   2325000   1106.1729      7.727877      -524165.72      27990.706     -496175.01    
   2326000   1108.7755      4.0636044     -524107.02      28056.562     -496050.46    
   2327000   1071.6717      1.2578231     -524060.13      27117.685     -496942.44    
   2328000   1130.8931      0.58951507    -524675.44      28616.228     -496059.21    
   2329000   1092.6248      3.3665624     -523990.9       27647.883     -496343.02    
4.37778695871103
   2330000   1109.1273      4.377787      -524059.77      28065.463     -495994.31    
   2331000   1096.7991      3.2783931     -524203.78      27753.509     -496450.27    
   2332000   1091.9798      3.8220242     -524108.77      27631.562     -496477.21    
   2333000   1107.0156      4.7476992     -524580.94      28012.029     -496568.91    
   2334000   1107.2102      2.010206      -524426.3       28016.954     -496409.35    
4.02230589771152
   2335000   1083.2492      4.0223059     -524397.34      27410.642     -496986.7     
   2336000   1098.2038      3.7404118     -524307.87      27789.054     -496518.82    
   2337000   1081.0956     -1.2539642     -523754.84      27356.147     -496398.7     
   2338000   1093.1194      4.2065448     -524704.63      27660.399     -497044.23    
   2339000   1110.9267      4.4092565     -524427.84      28110.998     -496316.84    
2.56823349277551
   2340000   1077.8147      2.5682335     -524371.84      27273.126     -497098.72    
   2341000   1097.1434      0.7580557     -524568.22      27762.222     -496805.99    
   2342000   1109.7578      4.2023894     -524620.35      28081.417     -496538.94    
   2343000   1092.289       6.3762828     -524807.46      27639.386     -497168.07    
   2344000   1090.617       2.2665679     -524503.32      27597.079     -496906.24    
3.1734592889563
   2345000   1076.5295      3.1734593     -524247.91      27240.607     -497007.3     
   2346000   1100.7725     -0.52845194    -524885.65      27854.053     -497031.6     
   2347000   1102.6998      2.1438019     -524705.16      27902.823     -496802.33    
   2348000   1107.0731      3.2512715     -524753.87      28013.484     -496740.39    
   2349000   1101.2969      2.5761142     -524461.21      27867.323     -496593.89    
2.83885006474112
   2350000   1101.8956      2.8388501     -524867.04      27882.473     -496984.56    
   2351000   1106.0043      0.71157127    -524933.48      27986.439     -496947.04    
   2352000   1109.1004      4.7043043     -524600.92      28064.782     -496536.14    
   2353000   1121.8731      3.1206857     -524999.27      28387.985     -496611.29    
   2354000   1092.9882      4.9309936     -525237.8       27657.078     -497580.72    
2.57235505360972
   2355000   1095.5404      2.5723551     -525176.84      27721.659     -497455.18    
   2356000   1091.8731      0.11873646    -524581         27628.862     -496952.14    
   2357000   1096.5382      1.2700993     -524847.33      27746.91      -497100.42    
   2358000   1098.9109      2.3700567     -525168.89      27806.947     -497361.94    
   2359000   1099.4135      2.5944247     -525575.43      27819.665     -497755.77    
2.61123982142272
   2360000   1106.1109      2.6112398     -525479.76      27989.136     -497490.63    
   2361000   1095.3703      3.1363708     -525358.39      27717.355     -497641.03    
   2362000   1092.1481      0.3201785     -524937.13      27635.82      -497301.31    
   2363000   1086.174       4.1001178     -524885.1       27484.651     -497400.45    
   2364000   1092.6918     -0.49120837    -525259.7       27649.578     -497610.12    
1.33454151530078
   2365000   1122.4656      1.3345415     -525479.5       28402.977     -497076.52    
   2366000   1076.9412      2.8867432     -525389.09      27251.024     -498138.07    
   2367000   1125.4381      6.4838191     -525212.16      28478.195     -496733.97    
   2368000   1099.6148     -0.96518296    -525058.43      27824.758     -497233.67    
   2369000   1084.6685      2.7263169     -525411.81      27446.557     -497965.25    
1.87701737361107
   2370000   1080.9288      1.8770174     -524912.54      27351.926     -497560.61    
   2371000   1083.1182      1.6709343     -525258.27      27407.327     -497850.94    
   2372000   1108.1118      0.58790653    -525388.06      28039.769     -497348.29    
   2373000   1081.7608      2.1676767     -525021.08      27372.979     -497648.11    
   2374000   1092.1076      6.5313746     -525780.02      27634.796     -498145.22    
0.0402129950271913
   2375000   1100.9075      0.040212995   -525159.97      27857.469     -497302.5     
   2376000   1101.7904      1.7953539     -525936.33      27879.812     -498056.52    
   2377000   1083.5995     -0.63243405    -525228.6       27419.506     -497809.09    
   2378000   1096.7018      2.3201271     -525598.7       27751.048     -497847.66    
   2379000   1112.9119      4.3270824     -525914.12      28161.231     -497752.89    
-1.52011917916619
   2380000   1084.4439     -1.5201192     -525365.07      27440.872     -497924.2     
   2381000   1087.4901      1.3408019     -525324.9       27517.954     -497806.95    
   2382000   1096.9451      2.9902118     -526017.04      27757.206     -498259.83    
   2383000   1102.8918      4.1541784     -526160.83      27907.68      -498253.15    
   2384000   1081.2089      0.44034483    -525156.97      27359.015     -497797.95    
3.22611669510021
   2385000   1101.1265      3.2261167     -525724.79      27863.011     -497861.78    
   2386000   1106.9956      3.3963982     -525548.05      28011.524     -497536.53    
   2387000   1089.4544      1.9114314     -525670.2       27567.659     -498102.54    
   2388000   1116.8794      1.9198812     -525752.66      28261.623     -497491.04    
   2389000   1089.9488      4.7981639     -526168.59      27580.17      -498588.42    
4.44502036130929
   2390000   1106.5003      4.4450204     -526241.03      27998.99      -498242.04    
   2391000   1103.4508      2.7459161     -525995.43      27921.826     -498073.6     
   2392000   1080.8471      1.0751094     -526006.25      27349.86      -498656.39    
   2393000   1096.6822      7.6522811     -526051.65      27750.551     -498301.1     
   2394000   1115.8078      4.3865278     -526372.03      28234.507     -498137.52    
-0.735661454032506
   2395000   1092.8221     -0.73566145    -526082.7       27652.875     -498429.82    
   2396000   1124.7895      2.3548954     -526190.06      28461.782     -497728.28    
   2397000   1110.3786      1.8686943     -526128.47      28097.127     -498031.34    
   2398000   1100.4015      0.63250569    -526578.32      27844.667     -498733.65    
   2399000   1106.3792     -0.34938752    -526145.13      27995.926     -498149.21    
1.62300083461754
   2400000   1115.8627      1.6230008     -526611.44      28235.898     -498375.54    
   2401000   1084.7042      2.6403807     -526067.95      27447.459     -498620.49    
   2402000   1094.5941      0.25720341    -526281.69      27697.715     -498583.98    
   2403000   1089.4155      1.8260879     -526577.91      27566.674     -499011.24    
   2404000   1099.8511      4.4659163     -526521.89      27830.738     -498691.15    
0.629138300318574
   2405000   1110.8806      0.6291383     -526191.9       28109.829     -498082.08    
   2406000   1120.9027      1.2275133     -526673.95      28363.43      -498310.52    
   2407000   1102.9588      0.78562765    -526858.64      27909.376     -498949.26    
   2408000   1104.2485      2.2237548     -525995.93      27942.011     -498053.92    
   2409000   1098.6862      3.4456688     -526314.55      27801.262     -498513.29    
3.32429741610039
   2410000   1122.7155      3.3242974     -526499.58      28409.301     -498090.28    
   2411000   1097.796       3.6980637     -526463.78      27778.735     -498685.04    
   2412000   1109.7891      2.6037713     -526477.13      28082.21      -498394.92    
   2413000   1088.5201     -0.95564569    -526640.47      27544.017     -499096.45    
   2414000   1100.5525      2.3696473     -526256.94      27848.486     -498408.46    
1.84701075140614
   2415000   1082.2048      1.8470108     -526613.39      27384.215     -499229.17    
   2416000   1079.7385      1.0891711     -525932.59      27321.806     -498610.78    
   2417000   1105.014       1.0603352     -526353.45      27961.382     -498392.06    
   2418000   1107.1378      2.4578554     -526810.91      28015.121     -498795.79    
   2419000   1101.1185      1.5440342     -527010.06      27862.81      -499147.25    
2.65347800692021
   2420000   1101.6125      2.653478      -526665.92      27875.31      -498790.61    
   2421000   1084.2541      3.1264167     -526093.06      27436.072     -498656.98    
   2422000   1091.9782      2.2346313     -526681.49      27631.523     -499049.97    
   2423000   1096.2081      3.9179781     -526072.25      27738.556     -498333.69    
   2424000   1089.6835      1.7726578     -526375.64      27573.455     -498802.18    
2.395552905202
   2425000   1108.0447      2.3955529     -526455.87      28038.07      -498417.8     
   2426000   1099.3138      4.640532      -526329.72      27817.144     -498512.58    
   2427000   1079.7304      1.8666731     -527062.68      27321.603     -499741.07    
   2428000   1102.8278      1.7363119     -526721.53      27906.062     -498815.47    
   2429000   1111.2177      5.0619219     -527397.83      28118.359     -499279.47    
3.5860205399084
   2430000   1083.9159      3.5860205     -527130.78      27427.512     -499703.27    
   2431000   1102.7782      0.18922038    -526901.77      27904.807     -498996.97    
   2432000   1086.2354      2.5661432     -526859         27486.205     -499372.79    
   2433000   1109.5988      4.4259631     -526971.63      28077.395     -498894.23    
   2434000   1115.5649      2.6104375     -526853.72      28228.361     -498625.36    
2.90706698472956
   2435000   1111.7991      2.907067      -527348.02      28133.073     -499214.95    
   2436000   1085.9         2.3704994     -527199.04      27477.718     -499721.32    
   2437000   1095.681       4.9978614     -526818.68      27725.218     -499093.47    
   2438000   1122.334       2.1734601     -526749.25      28399.648     -498349.61    
   2439000   1080.5498      0.94437478    -527143.4       27342.338     -499801.07    
2.35074957093769
   2440000   1123.1146      2.3507496     -527572.86      28419.399     -499153.47    
   2441000   1109.9573      4.2965796     -527217.85      28086.468     -499131.38    
   2442000   1128.2586     -1.8600894     -527202.54      28549.565     -498652.98    
   2443000   1095.1009      1.5963995     -527321.83      27710.539     -499611.29    
   2444000   1114.9132      1.7901964     -527999.36      28211.871     -499787.49    
4.46689027561734
   2445000   1110.4103      4.4668903     -527552.56      28097.93      -499454.63    
   2446000   1099.9291      2.3847231     -527601.37      27832.712     -499768.65    
   2447000   1108.4705      2.1822287     -527551.66      28048.846     -499502.82    
   2448000   1075.6291      3.5693351     -527384.38      27217.823     -500166.56    
   2449000   1101.4966      4.3101589     -527399.41      27872.376     -499527.04    
0.545664981158174
   2450000   1085.7476      0.54566498    -527550.71      27473.863     -500076.85    
   2451000   1122.0143      2.405426      -527670.2       28391.557     -499278.64    
   2452000   1108.9019      5.2445907     -527412.01      28059.76      -499352.25    
   2453000   1104.338       3.6028242     -527537.95      27944.276     -499593.67    
   2454000   1100.9471      1.2382459     -527118.75      27858.472     -499260.27    
3.65178293113319
   2455000   1080.9268      3.6517829     -527546.2       27351.875     -500194.33    
   2456000   1098.1799      1.0793094     -527369.53      27788.451     -499581.08    
   2457000   1091.7722      1.457686      -527275.94      27626.31      -499649.63    
   2458000   1114.8198      5.3926291     -527875.3       28209.507     -499665.79    
   2459000   1112.9788      2.2708006     -527811.57      28162.923     -499648.65    
2.48516564576087
   2460000   1100.7899      2.4851656     -527403.16      27854.494     -499548.66    
   2461000   1090.0345      3.1425293     -527406.64      27582.337     -499824.3     
   2462000   1108.7052      0.65107833    -527780.86      28054.782     -499726.07    
   2463000   1078.2447      0.21512013    -527298.9       27284.008     -500014.89    
   2464000   1075.7544      2.7227906     -527905.63      27220.994     -500684.64    
1.68809255453666
   2465000   1096.6523      1.6880926     -527744.43      27749.797     -499994.63    
   2466000   1119.3849      2.4373327     -527747.23      28325.023     -499422.21    
   2467000   1088.0785     -1.0145064     -527579.3       27532.844     -500046.45    
   2468000   1112.9917      2.7031168     -527608.93      28163.25      -499445.68    
   2469000   1085.4772      2.1351595     -527381.21      27467.019     -499914.19    
2.8631712956692
   2470000   1085.5953      2.8631713     -527301.65      27470.007     -499831.65    
   2471000   1094.5367      4.9100276     -527559.25      27696.263     -499862.99    
   2472000   1111.6241      2.2071505     -527550.3       28128.643     -499421.66    
   2473000   1085.5211      1.3708249     -527034.93      27468.13      -499566.8     
   2474000   1099.001       4.6531101     -528071.86      27809.228     -500262.63    
2.65072097972442
   2475000   1109.1531      2.650721      -527919.66      28066.116     -499853.54    
   2476000   1095.5935      0.86157798    -527508.53      27723.005     -499785.52    
   2477000   1093.2602      1.1647452     -528459.94      27663.963     -500795.98    
   2478000   1106.0851      3.3750195     -527980.74      27988.485     -499992.25    
   2479000   1088.4372      1.3726464     -528162.58      27541.919     -500620.66    
2.99225973150251
   2480000   1109.7322      2.9922597     -527791.37      28080.77      -499710.6     
   2481000   1098.0556      4.5339597     -527827.86      27785.304     -500042.55    
   2482000   1087.9427      2.1463834     -527536.82      27529.407     -500007.41    
   2483000   1113.8536      3.4817383     -528489.08      28185.059     -500304.02    
   2484000   1110.9116      4.296843      -527764.58      28110.614     -499653.96    
4.46964657138756
   2485000   1114.241       4.4696466     -528154.85      28194.861     -499959.99    
   2486000   1102.2979      3.4976519     -527818.01      27892.653     -499925.36    
   2487000   1103.312       3.4400505     -528267.82      27918.313     -500349.51    
   2488000   1095.1419      5.9385803     -527656.51      27711.575     -499944.93    
   2489000   1091.5625      2.5533882     -528019.44      27621.003     -500398.44    
2.515360618545
   2490000   1103.8691      2.5153606     -528483.11      27932.409     -500550.7     
   2491000   1098.6759      3.0221635     -527852.7       27801         -500051.7     
   2492000   1084.8159      2.478268      -528117.15      27450.285     -500666.86    
   2493000   1114.7153      4.5990276     -527931.2       28206.863     -499724.34    
   2494000   1110.8164      3.3917152     -528344.37      28108.205     -500236.16    
2.01498826040037
   2495000   1095.225       2.0149883     -528061.18      27713.68      -500347.5     
   2496000   1094.8463      4.8467707     -528024.19      27704.097     -500320.09    
   2497000   1080.7272      4.9917648     -528078.67      27346.825     -500731.85    
   2498000   1105.268       1.060981      -528451.94      27967.807     -500484.13    
   2499000   1109.951       1.5449323     -528411.19      28086.308     -500324.89    
3.75476847506354
   2500000   1122.1069      3.7547685     -528651.42      28393.901     -500257.51    
   2500013   1113.2946      3.2709215     -528527.96      28170.915     -500357.04    
Loop time of 1041.4 on 48 procs for 2500000 steps with 8490 atoms

Performance: 41.483 ns/day, 0.579 hours/ns, 2400.613 timesteps/s, 20.381 Matom-step/s
99.8% CPU use with 48 MPI tasks x 1 OpenMP threads

MPI task timing breakdown:
Section |  min time  |  avg time  |  max time  |%varavg| %total
---------------------------------------------------------------
Pair    | 343.04     | 399.71     | 470.25     | 163.1 | 38.38
Bond    | 0.077101   | 0.080357   | 0.085489   |   0.6 |  0.01
Neigh   | 17.987     | 19.084     | 20.481     |  14.0 |  1.83
Comm    | 154.6      | 238.67     | 293.17     | 218.3 | 22.92
Output  | 0.61326    | 6.6394     | 6.7702     |  34.1 |  0.64
Modify  | 351.24     | 376.14     | 405.99     |  71.3 | 36.12
Other   |            | 1.085      |            |       |  0.10

Nlocal:        176.875 ave         245 max         137 min
Histogram: 5 7 5 11 10 5 1 1 2 1
Nghost:        117.125 ave         160 max          77 min
Histogram: 2 3 4 10 8 8 5 3 1 4
Neighs:        257.292 ave         605 max         127 min
Histogram: 5 14 11 9 4 4 0 0 0 1

Total # of neighbors = 12350
Ave neighs/atom = 1.4546525
Ave special neighs/atom = 0
Neighbor list builds = 250000
Dangerous builds not checked
Total wall time: 0:17:24
